3
 energy: -5.070222286724 gnorm: 0.018343947735 xtb: 6.7.1 (edcfbbe)
O            0.00000000000000        0.00000000000000        0.39753933000000
H            0.00000000000000        0.76323900000000       -0.19876967000000
H            0.00000000000000       -0.76323900000000       -0.19876967000000
3
 energy: -5.070460421759 gnorm: 0.007990582247 xtb: 6.7.1 (edcfbbe)
O           -0.00000000000000       -0.00000000000000        0.38906428611799
H           -0.00000000000000        0.76559516437558       -0.19453214805900
H            0.00000000000000       -0.76559516437558       -0.19453214805900
3
 energy: -5.070542630148 gnorm: 0.000934371841 xtb: 6.7.1 (edcfbbe)
O           -0.00000000000000        0.00000000073379        0.38023570697160
H           -0.00000000000000        0.77061564838232       -0.19011785819906
H            0.00000000000000       -0.77061564911612       -0.19011785877255
3
 energy: -5.070544351069 gnorm: 0.000185435834 xtb: 6.7.1 (edcfbbe)
O           -0.00000000000000       -0.00000000009148        0.37904932630011
H           -0.00000000000000        0.77250895193309       -0.18952466818580
H            0.00000000000000       -0.77250895184160       -0.18952466811431
