3
 energy: -5.070544351070 gnorm: 0.000185026341 xtb: 6.7.1 (edcfbbe)
O           -0.00000000000000       -0.00000000009148        0.37904932630011
H           -0.00000000000000        0.77250895193309       -0.18952466818580
H            0.00000000000000       -0.77250895184160       -0.18952466811431
